                               Psi4 1.3.2 release

  ==> Input File <==

--------------------------------------------------------------------------
# psi4 input file
sys.path.insert(0, os.environ['PSI_PLUGIN_PATH'])
import scf_plugin

molecule {
  0 1
  O          0.000000000000     0.000000000000    -0.065775570538
  H          0.000000000000    -0.759061990794     0.521953018295
  H          0.000000000000     0.759061990794     0.521953018295
}

set {
  basis cc-pvdz
  e_convergence 1.0e-8
  d_convergence 1.0e-8
  scf_maxiter 50
  guess core
}

energy('scf_plugin')
--------------------------------------------------------------------------

    Molecular point group: c2v

    Geometry (in Angstrom), charge = 0, multiplicity = 1:

       Center              X                  Y                   Z               Mass
    ------------   -----------------  -----------------  -----------------  -----------------
         O            0.000000000000     0.000000000000    -0.065775570547    15.994914619570
         H            0.000000000000    -0.759061990794     0.521953018286     1.007825032230
         H           -0.000000000000     0.759061990794     0.521953018286     1.007825032230

  Charge       = 0
  Multiplicity = 1
  Basis Set: CC-PVDZ
    Blend: CC-PVDZ

    Orbital Energies [Eh]
    ---------------------

    Doubly Occupied:

       1A1   -20.550919     2A1    -1.335305     1B2    -0.697799
       3A1    -0.566090     1B1    -0.492954

  @RHF Final Energy:   -76.02665366188845

   => Energetics <=

    Nuclear Repulsion Energy =              9.1681932964254393
    One-Electron Energy =                -123.1035621684408454
    Two-Electron Energy =                  37.9087152101269567
    Total Energy =                        -76.0266536618884459

  Dipole Moment: [D]
     X:     0.0000      Y:     0.0000      Z:     2.0592     Total:     2.0592

*** Psi4 exiting successfully. Buy a developer a beer!
