                               Psi4 1.3.2 release

  ==> Input File <==

--------------------------------------------------------------------------
# psi4 input file
sys.path.insert(0, os.environ['PSI_PLUGIN_PATH'])
import rhf_mp2

molecule {
  0 1
  O          0.000000000000     0.000000000000    -0.065775570538
  H          0.000000000000    -0.759061990794     0.521953018295
  H          0.000000000000     0.759061990794     0.521953018295
}

set {
  basis cc-pvdz
  df_basis_scf cc-pvdz-jkfit
  df_basis_cc cc-pvdz-jkfit
  e_convergence 1.0e-8
  d_convergence 1.0e-6
  guess core
  qc_module occ
  scf_type df
}

energy('mp2')
energy('rhf_mp2')
--------------------------------------------------------------------------

    Molecular point group: c2v
  Charge       = 0
  Multiplicity = 1
  Basis Set: CC-PVDZ
    Blend: CC-PVDZ
  Basis Set: CC-PVDZ-JKFIT
    Blend: CC-PVDZ-JKFIT
  @DF-RHF Final Energy:   -76.02663273507268
    Total Energy =                        -76.0266327350726812
	DF-MP2 Total Energy (a.u.)         :   -76.23074448555401
    Molecular point group: c2v

    Geometry (in Angstrom), charge = 0, multiplicity = 1:

       Center              X                  Y                   Z               Mass
    ------------   -----------------  -----------------  -----------------  -----------------
         O            0.000000000000     0.000000000000    -0.065775570547    15.994914619570
         H            0.000000000000    -0.759061990794     0.521953018286     1.007825032230
         H           -0.000000000000     0.759061990794     0.521953018286     1.007825032230

  Charge       = 0
  Multiplicity = 1
  Basis Set: CC-PVDZ
    Blend: CC-PVDZ
  Basis Set: CC-PVDZ-JKFIT
    Blend: CC-PVDZ-JKFIT

    Orbital Energies [Eh]
    ---------------------

    Doubly Occupied:

       1A1   -20.550926     2A1    -1.335311     1B2    -0.697803
       3A1    -0.566087     1B1    -0.492948

  @DF-RHF Final Energy:   -76.02663273507264

   => Energetics <=

    Nuclear Repulsion Energy =              9.1681932964254393
    One-Electron Energy =                -123.1034720455928522
    Two-Electron Energy =                  37.9086460140947707
    Total Energy =                        -76.0266327350726385

  Dipole Moment: [D]
     X:     0.0000      Y:     0.0000      Z:     2.0595     Total:     2.0595

  Basis Set: CC-PVDZ
    Blend: CC-PVDZ
  Basis Set: CC-PVDZ-JKFIT
    Blend: CC-PVDZ-JKFIT
*** Psi4 exiting successfully. Buy a developer a beer!
